/*--------------------------------*- C++ -*----------------------------------*\
  =========                 |
  \\      /  F ield         | OpenFOAM: The Open Source CFD Toolbox
   \\    /   O peration     | Website:  https://openfoam.org
    \\  /    A nd           | Version:  7
     \\/     M anipulation  |
\*---------------------------------------------------------------------------*/
FoamFile
{
    version     2.0;
    format      ascii;
    class       volScalarField;
    location    "0";
    object      yPlus;
}
// * * * * * * * * * * * * * * * * * * * * * * * * * * * * * * * * * * * * * //

dimensions      [0 0 0 0 0 0 0];

internalField   uniform 0;

boundaryField
{
    inlet
    {
        type            calculated;
        value           uniform 0;
    }
    outlet
    {
        type            calculated;
        value           uniform 0;
    }
    naca
    {
        type            calculated;
        value           nonuniform List<scalar> 
300
(
10.5936
10.6045
10.4485
10.3111
10.3568
9.85783
9.79474
9.71299
9.42721
9.41845
8.98539
9.12154
8.95889
9.12828
9.0695
8.90573
8.97064
9.07612
9.03291
9.11224
8.85837
9.18265
9.19452
9.10389
9.27112
9.2773
9.36021
9.41847
9.44643
9.42373
9.50963
9.56785
9.61993
9.70132
9.8283
9.82071
9.78595
10.0171
9.99213
10.0124
10.0914
10.0353
10.1839
10.2838
10.242
10.3158
10.3817
10.4456
10.5157
10.4811
10.5144
10.5943
10.6648
10.7203
10.7356
10.729
10.7931
10.8559
10.9117
10.9521
10.9357
11.0516
11.0946
11.0813
11.0724
11.1904
11.2146
11.2276
11.2781
11.3337
11.3339
11.365
11.4148
11.4638
11.5117
11.5065
11.5934
11.5991
11.6004
11.6928
11.7345
11.736
11.783
11.7907
11.854
11.9006
11.9171
11.9669
12.0056
12.019
12.1023
12.1097
12.1195
12.2033
12.2142
12.296
12.276
12.3544
12.4029
12.4186
12.4675
12.5146
12.5647
12.6067
12.6295
12.6827
12.733
12.7858
12.8096
12.8849
12.9099
12.9635
13.0174
13.0713
13.1049
13.1707
13.2082
13.2677
13.3236
13.3821
13.4308
13.4912
13.5395
13.6039
13.6526
13.7346
13.7782
13.8416
13.9054
13.9532
14.037
14.0973
14.1595
14.2353
14.2932
14.3683
14.435
14.515
14.5838
14.6533
14.7217
14.8074
14.8878
14.9584
15.0324
15.1214
15.2008
15.2809
15.3793
15.4477
10.5936
10.6045
10.4485
10.3111
10.3568
9.85783
9.79474
9.71299
9.42721
9.41845
8.98539
9.12154
8.95889
9.12828
9.0695
8.90573
8.97064
9.07612
9.03291
9.11224
8.85837
9.18265
9.19452
9.10389
9.27112
9.2773
9.36021
9.41847
9.44643
9.42373
9.50963
9.56785
9.61993
9.70132
9.8283
9.82071
9.78595
10.0171
9.99213
10.0124
10.0914
10.0353
10.1839
10.2838
10.242
10.3158
10.3817
10.4456
10.5157
10.4811
10.5144
10.5943
10.6648
10.7203
10.7356
10.729
10.7931
10.8559
10.9117
10.9521
10.9357
11.0516
11.0946
11.0813
11.0724
11.1904
11.2146
11.2276
11.2781
11.3337
11.3339
11.365
11.4148
11.4638
11.5117
11.5065
11.5934
11.5991
11.6004
11.6928
11.7345
11.736
11.783
11.7907
11.854
11.9006
11.9171
11.9669
12.0056
12.019
12.1023
12.1097
12.1195
12.2033
12.2142
12.296
12.276
12.3544
12.4029
12.4186
12.4675
12.5146
12.5647
12.6067
12.6295
12.6827
12.733
12.7858
12.8096
12.8849
12.9099
12.9635
13.0174
13.0713
13.1049
13.1707
13.2082
13.2677
13.3236
13.3821
13.4308
13.4912
13.5395
13.6039
13.6526
13.7346
13.7782
13.8416
13.9054
13.9532
14.037
14.0973
14.1595
14.2353
14.2932
14.3683
14.435
14.515
14.5838
14.6533
14.7217
14.8074
14.8878
14.9584
15.0324
15.1214
15.2008
15.2809
15.3793
15.4477
)
;
    }
    frontAndBack
    {
        type            empty;
    }
}


// ************************************************************************* //
